nqpoint: 306    
npath: 6      
segment_nqpoint:
- 51
- 51
- 51
- 51
- 51
- 51
labels:
- [ '$\Gamma$', '$\mathrm{X}$' ]
- [ '$\mathrm{X}$', '$\mathrm{M}$' ]
- [ '$\mathrm{M}$', '$\Gamma$' ]
- [ '$\Gamma$', '$\mathrm{R}$' ]
- [ '$\mathrm{R}$', '$\mathrm{X}$' ]
- [ '$\mathrm{R}$', '$\mathrm{M}$' ]
reciprocal_lattice:
- [   0.24374216,   0.00000000,   0.00000000 ] # a*
- [   0.00000000,   0.24374216,   0.00000000 ] # b*
- [   0.00000000,   0.00000000,   0.24374216 ] # c*
natom: 5      
lattice:
- [     4.102696125634242,     0.000000000000000,     0.000000000000000 ] # a
- [     0.000000000000000,     4.102696125634241,     0.000000000000000 ] # b
- [     0.000000000000000,     0.000000000000000,     4.102696125634242 ] # c
points:
- symbol: Al # 1
  coordinates: [  0.000000000000000,  0.000000000000000,  0.000000000000000 ]
  mass: 26.981539
- symbol: Al # 2
  coordinates: [  0.500000000000000,  0.500000000000000,  0.000000000000000 ]
  mass: 26.981539
- symbol: Al # 3
  coordinates: [  0.000000000000000,  0.500000000000000,  0.500000000000000 ]
  mass: 26.981539
- symbol: Al # 4
  coordinates: [  0.500000000000000,  0.000000000000000,  0.500000000000000 ]
  mass: 26.981539
- symbol: H  # 5
  coordinates: [  0.500000000000000,  0.500000000000000,  0.500000000000000 ]
  mass: 1.007940

phonon:
- q-position: [    0.0000000,    0.0000000,    0.0000000 ]
  distance:    0.0000000
  band:
  - # 1
    frequency:    0.0042954691
    eigenvector:
    - # atom 1
      - [  0.00254721193337,  0.00000000000000 ]
      - [  0.30434419135673,  0.00000000000000 ]
      - [  0.39371398815101,  0.00000000000000 ]
    - # atom 2
      - [  0.00254763136468,  0.00000000000000 ]
      - [  0.30439430555425,  0.00000000000000 ]
      - [  0.39374711661333,  0.00000000000000 ]
    - # atom 3
      - [  0.00254742626463,  0.00000000000000 ]
      - [  0.30439430555425,  0.00000000000000 ]
      - [  0.39377881823854,  0.00000000000000 ]
    - # atom 4
      - [  0.00254763136468,  0.00000000000000 ]
      - [  0.30436979993397,  0.00000000000000 ]
      - [  0.39377881823854,  0.00000000000000 ]
    - # atom 5
      - [  0.00049162370527,  0.00000000000000 ]
      - [  0.05873983906517,  0.00000000000000 ]
      - [  0.07598862392805,  0.00000000000000 ]
  - # 2
    frequency:    0.0042954691
    eigenvector:
    - # atom 1
      - [  0.49327071041806,  0.00000000000000 ]
      - [ -0.05354694613817,  0.00000000000000 ]
      - [  0.03820092106129,  0.00000000000000 ]
    - # atom 2
      - [  0.49335193380431,  0.00000000000000 ]
      - [ -0.05355576333368,  0.00000000000000 ]
      - [  0.03820413541946,  0.00000000000000 ]
    - # atom 3
      - [  0.49331221592875,  0.00000000000000 ]
      - [ -0.05355576333368,  0.00000000000000 ]
      - [  0.03820721133579,  0.00000000000000 ]
    - # atom 4
      - [  0.49335193380431,  0.00000000000000 ]
      - [ -0.05355145176419,  0.00000000000000 ]
      - [  0.03820721133579,  0.00000000000000 ]
    - # atom 5
      - [  0.09520353260678,  0.00000000000000 ]
      - [ -0.01033480870644,  0.00000000000000 ]
      - [  0.00737295476309,  0.00000000000000 ]
  - # 3
    frequency:    0.0042954691
    eigenvector:
    - # atom 1
      - [  0.06572744877159,  0.00000000000000 ]
      - [  0.39006399130614,  0.00000000000000 ]
      - [ -0.30194795036775,  0.00000000000000 ]
    - # atom 2
      - [  0.06573827164400,  0.00000000000000 ]
      - [  0.39012822037461,  0.00000000000000 ]
      - [ -0.30197335731695,  0.00000000000000 ]
    - # atom 3
      - [  0.06573297930740,  0.00000000000000 ]
      - [  0.39012822037461,  0.00000000000000 ]
      - [ -0.30199766999327,  0.00000000000000 ]
    - # atom 4
      - [  0.06573827164400,  0.00000000000000 ]
      - [  0.39009681264505,  0.00000000000000 ]
      - [ -0.30199766999327,  0.00000000000000 ]
    - # atom 5
      - [  0.01268570215123,  0.00000000000000 ]
      - [  0.07528415762528,  0.00000000000000 ]
      - [ -0.05827735345167,  0.00000000000000 ]
  - # 4
    frequency:    5.0633255252
    eigenvector:
    - # atom 1
      - [ -0.00000000000000,  0.00000000000000 ]
      - [  0.00000000000000,  0.00000000000000 ]
      - [ -0.00000000000000,  0.00000000000000 ]
    - # atom 2
      - [ -0.62139399227212,  0.00000000000000 ]
      - [  0.03420720630461,  0.00000000000000 ]
      - [  0.00000000000000,  0.00000000000000 ]
    - # atom 3
      - [  0.00000000000000,  0.00000000000000 ]
      - [ -0.03420720630461,  0.00000000000000 ]
      - [ -0.33570727338702,  0.00000000000000 ]
    - # atom 4
      - [  0.62139399227212,  0.00000000000000 ]
      - [ -0.00000000000000,  0.00000000000000 ]
      - [  0.33570727338702,  0.00000000000000 ]
    - # atom 5
      - [  0.00000000000000,  0.00000000000000 ]
      - [ -0.00000000000000,  0.00000000000000 ]
      - [  0.00000000000000,  0.00000000000000 ]
  - # 5
    frequency:    5.0633255252
    eigenvector:
    - # atom 1
      - [  0.00000000000000,  0.00000000000000 ]
      - [  0.00000000000000,  0.00000000000000 ]
      - [ -0.00000000000000,  0.00000000000000 ]
    - # atom 2
      - [ -0.24762808814854,  0.00000000000000 ]
      - [ -0.52411068171252,  0.00000000000000 ]
      - [  0.00000000000000,  0.00000000000000 ]
    - # atom 3
      - [ -0.00000000000000,  0.00000000000000 ]
      - [  0.52411068171252,  0.00000000000000 ]
      - [  0.40495471756079,  0.00000000000000 ]
    - # atom 4
      - [  0.24762808814854,  0.00000000000000 ]
      - [  0.00000000000000,  0.00000000000000 ]
      - [ -0.40495471756079,  0.00000000000000 ]
    - # atom 5
      - [ -0.00000000000000,  0.00000000000000 ]
      - [  0.00000000000000,  0.00000000000000 ]
      - [  0.00000000000000,  0.00000000000000 ]
  - # 6
    frequency:    5.0633255252
    eigenvector:
    - # atom 1
      - [ -0.00000000000000,  0.00000000000000 ]
      - [ -0.00000000000000,  0.00000000000000 ]
      - [ -0.00000000000000,  0.00000000000000 ]
    - # atom 2
      - [  0.22923751073508,  0.00000000000000 ]
      - [ -0.47343200182462,  0.00000000000000 ]
      - [  0.00000000000000,  0.00000000000000 ]
    - # atom 3
      - [  0.00000000000000,  0.00000000000000 ]
      - [  0.47343200182462,  0.00000000000000 ]
      - [ -0.47255931196022,  0.00000000000000 ]
    - # atom 4
      - [ -0.22923751073508,  0.00000000000000 ]
      - [  0.00000000000000,  0.00000000000000 ]
      - [  0.47255931196022,  0.00000000000000 ]
    - # atom 5
      - [  0.00000000000000,  0.00000000000000 ]
      - [ -0.00000000000000,  0.00000000000000 ]
      - [  0.00000000000000,  0.00000000000000 ]
  - # 7
    frequency:    5.6062139458
    eigenvector:
    - # atom 1
      - [ -0.09589550212042,  0.00000000000000 ]
      - [ -0.62052882554746,  0.00000000000000 ]
      - [ -0.03967332993949,  0.00000000000000 ]
    - # atom 2
      - [ -0.01146113992602,  0.00000000000000 ]
      - [ -0.07416372551858,  0.00000000000000 ]
      - [  0.04638410350705,  0.00000000000000 ]
    - # atom 3
      - [  0.11211629835454,  0.00000000000000 ]
      - [ -0.07416372551858,  0.00000000000000 ]
      - [ -0.00474163621560,  0.00000000000000 ]
    - # atom 4
      - [ -0.01146113992601,  0.00000000000000 ]
      - [  0.72549174261900,  0.00000000000000 ]
      - [ -0.00474163621560,  0.00000000000000 ]
    - # atom 5
      - [  0.03469255683690,  0.00000000000000 ]
      - [  0.22449156710401,  0.00000000000000 ]
      - [  0.01435280303456,  0.00000000000000 ]
  - # 8
    frequency:    5.6062139458
    eigenvector:
    - # atom 1
      - [ -0.01310246864912,  0.00000000000000 ]
      - [  0.04215004760894,  0.00000000000000 ]
      - [ -0.62759671969553,  0.00000000000000 ]
    - # atom 2
      - [ -0.00156596736284,  0.00000000000000 ]
      - [  0.00503764600896,  0.00000000000000 ]
      - [  0.73375517637263,  0.00000000000000 ]
    - # atom 3
      - [  0.01531876106557,  0.00000000000000 ]
      - [  0.00503764600896,  0.00000000000000 ]
      - [ -0.07500845881703,  0.00000000000000 ]
    - # atom 4
      - [ -0.00156596736284,  0.00000000000000 ]
      - [ -0.04927975983115,  0.00000000000000 ]
      - [ -0.07500845881703,  0.00000000000000 ]
    - # atom 5
      - [  0.00474014034300,  0.00000000000000 ]
      - [ -0.01524881657656,  0.00000000000000 ]
      - [  0.22704855167604,  0.00000000000000 ]
  - # 9
    frequency:    5.6062139458
    eigenvector:
    - # atom 1
      - [ -0.62165772074277,  0.00000000000000 ]
      - [  0.09483297908417,  0.00000000000000 ]
      - [  0.01934756030226,  0.00000000000000 ]
    - # atom 2
      - [ -0.07429864765266,  0.00000000000000 ]
      - [  0.01133415039133,  0.00000000000000 ]
      - [ -0.02262021466405,  0.00000000000000 ]
    - # atom 3
      - [  0.72681159128479,  0.00000000000000 ]
      - [  0.01133415039133,  0.00000000000000 ]
      - [  0.00231236179954,  0.00000000000000 ]
    - # atom 4
      - [ -0.07429864765266,  0.00000000000000 ]
      - [ -0.11087404874839,  0.00000000000000 ]
      - [  0.00231236179954,  0.00000000000000 ]
    - # atom 5
      - [  0.22489997271074,  0.00000000000000 ]
      - [ -0.03430816299141,  0.00000000000000 ]
      - [ -0.00699945587228,  0.00000000000000 ]
  - # 10
    frequency:    7.5553669853
    eigenvector:
    - # atom 1
      - [  0.26394726959102,  0.00000000000000 ]
      - [ -0.21762967710777,  0.00000000000000 ]
      - [  0.45489514949066,  0.00000000000000 ]
    - # atom 2
      - [ -0.21131217277403,  0.00000000000000 ]
      - [  0.17423101212985,  0.00000000000000 ]
      - [  0.20551890588542,  0.00000000000000 ]
    - # atom 3
      - [  0.11924979661473,  0.00000000000000 ]
      - [  0.17423101212985,  0.00000000000000 ]
      - [ -0.36418214354777,  0.00000000000000 ]
    - # atom 4
      - [ -0.21131217277403,  0.00000000000000 ]
      - [ -0.09832378555249,  0.00000000000000 ]
      - [ -0.36418214354777,  0.00000000000000 ]
    - # atom 5
      - [  0.20459009255707,  0.00000000000000 ]
      - [ -0.16868852574847,  0.00000000000000 ]
      - [  0.35259709593610,  0.00000000000000 ]
  - # 11
    frequency:    7.5553669853
    eigenvector:
    - # atom 1
      - [ -0.17575998052229,  0.00000000000000 ]
      - [  0.44154229260277,  0.00000000000000 ]
      - [  0.31322398950688,  0.00000000000000 ]
    - # atom 2
      - [  0.14071076934584,  0.00000000000000 ]
      - [ -0.35349204924942,  0.00000000000000 ]
      - [  0.14151272373997,  0.00000000000000 ]
    - # atom 3
      - [ -0.07940730723515,  0.00000000000000 ]
      - [ -0.35349204924942,  0.00000000000000 ]
      - [ -0.25076236587030,  0.00000000000000 ]
    - # atom 4
      - [  0.14071076934584,  0.00000000000000 ]
      - [  0.19948616506346,  0.00000000000000 ]
      - [ -0.25076236587030,  0.00000000000000 ]
    - # atom 5
      - [ -0.13623459995855,  0.00000000000000 ]
      - [  0.34224706567882,  0.00000000000000 ]
      - [  0.24278533020479,  0.00000000000000 ]
  - # 12
    frequency:    7.5553669853
    eigenvector:
    - # atom 1
      - [ -0.47265283521308,  0.00000000000000 ]
      - [ -0.28572392619060,  0.00000000000000 ]
      - [  0.13755569737374,  0.00000000000000 ]
    - # atom 2
      - [  0.37839867686997,  0.00000000000000 ]
      - [  0.22874623310336,  0.00000000000000 ]
      - [  0.06214684077026,  0.00000000000000 ]
    - # atom 3
      - [ -0.21354172201089,  0.00000000000000 ]
      - [  0.22874623310336,  0.00000000000000 ]
      - [ -0.11012500085540,  0.00000000000000 ]
    - # atom 4
      - [  0.37839867686997,  0.00000000000000 ]
      - [ -0.12908835972802,  0.00000000000000 ]
      - [ -0.11012500085540,  0.00000000000000 ]
    - # atom 5
      - [ -0.36636138518668,  0.00000000000000 ]
      - [ -0.22146955562633,  0.00000000000000 ]
      - [  0.10662179950205,  0.00000000000000 ]
  - # 13
    frequency:   12.3370541430
    eigenvector:
    - # atom 1
      - [  0.18047449168671,  0.00000000000000 ]
      - [  0.00000000000000,  0.00000000000000 ]
      - [  0.00000000000000,  0.00000000000000 ]
    - # atom 2
      - [ -0.19744327279681,  0.00000000000000 ]
      - [ -0.00000000000000,  0.00000000000000 ]
      - [  0.00000000000000,  0.00000000000000 ]
    - # atom 3
      - [  0.38095908463858,  0.00000000000000 ]
      - [ -0.00000000000000,  0.00000000000000 ]
      - [ -0.00000000000000,  0.00000000000000 ]
    - # atom 4
      - [ -0.19744327279681,  0.00000000000000 ]
      - [  0.00000000000000,  0.00000000000000 ]
      - [ -0.00000000000000,  0.00000000000000 ]
    - # atom 5
      - [ -0.86274645275210,  0.00000000000000 ]
      - [ -0.00000000000000,  0.00000000000000 ]
      - [ -0.00000000000000,  0.00000000000000 ]
  - # 14
    frequency:   12.3370541430
    eigenvector:
    - # atom 1
      - [  0.00000000000000,  0.00000000000000 ]
      - [  0.00555133042517,  0.00000000000000 ]
      - [ -0.18038909301863,  0.00000000000000 ]
    - # atom 2
      - [ -0.00000000000000,  0.00000000000000 ]
      - [ -0.00607328402633,  0.00000000000000 ]
      - [ -0.38077881872890,  0.00000000000000 ]
    - # atom 3
      - [  0.00000000000000,  0.00000000000000 ]
      - [ -0.00607328402633,  0.00000000000000 ]
      - [  0.19734984467653,  0.00000000000000 ]
    - # atom 4
      - [ -0.00000000000000,  0.00000000000000 ]
      - [  0.01171816436513,  0.00000000000000 ]
      - [  0.19734984467653,  0.00000000000000 ]
    - # atom 5
      - [ -0.00000000000000,  0.00000000000000 ]
      - [ -0.02653777044947,  0.00000000000000 ]
      - [  0.86233821002893,  0.00000000000000 ]
  - # 15
    frequency:   12.3370541430
    eigenvector:
    - # atom 1
      - [ -0.00000000000000,  0.00000000000000 ]
      - [  0.18038909301863,  0.00000000000000 ]
      - [  0.00555133042517,  0.00000000000000 ]
    - # atom 2
      - [  0.00000000000000,  0.00000000000000 ]
      - [ -0.19734984467653,  0.00000000000000 ]
      - [  0.01171816436513,  0.00000000000000 ]
    - # atom 3
      - [ -0.00000000000000,  0.00000000000000 ]
      - [ -0.19734984467653,  0.00000000000000 ]
      - [ -0.00607328402633,  0.00000000000000 ]
    - # atom 4
      - [  0.00000000000000,  0.00000000000000 ]
      - [  0.38077881872890,  0.00000000000000 ]
      - [ -0.00607328402633,  0.00000000000000 ]
    - # atom 5
      - [  0.00000000000000,  0.00000000000000 ]
      - [ -0.86233821002893,  0.00000000000000 ]
      - [ -0.02653777044947,  0.00000000000000 ]

- q-position: [    0.0000000,    0.0100000,    0.0000000 ]
  distance:    0.0024374
  band:
  - # 1
    frequency:    0.0685427709
    eigenvector:
    - # atom 1
      - [ -0.49738934974410,  0.00000000000000 ]
      - [  0.00000000000013,  0.00000000000000 ]
      - [ -0.01483249543332,  0.00001382279380 ]
    - # atom 2
      - [ -0.49748707800322,  0.00000000000000 ]
      - [  0.00000000000013,  0.00000000000000 ]
      - [ -0.01483535839514,  0.00001382546187 ]
    - # atom 3
      - [ -0.49748535562038, -0.00000000000000 ]
      - [  0.00000000000013,  0.00000000000000 ]
      - [ -0.01483540975780,  0.00001382550974 ]
    - # atom 4
      - [ -0.49750435197881, -0.00000000000000 ]
      - [  0.00000000000012,  0.00000000000000 ]
      - [ -0.01483592487973,  0.00001382598979 ]
    - # atom 5
      - [ -0.09601925978516, -0.00000000000000 ]
      - [  0.00000000000002,  0.00000000000000 ]
      - [ -0.00286336093245,  0.00000266844159 ]
  - # 2
    frequency:    0.0685427709
    eigenvector:
    - # atom 1
      - [  0.01483250187423,  0.00000000000000 ]
      - [  0.00000000000013,  0.00000000000000 ]
      - [ -0.49738913375621,  0.00046353005579 ]
    - # atom 2
      - [  0.01483541619997,  0.00000000000000 ]
      - [  0.00000000000013,  0.00000000000000 ]
      - [ -0.49748513959079,  0.00046361952616 ]
    - # atom 3
      - [  0.01483536483730,  0.00000000000000 ]
      - [  0.00000000000013,  0.00000000000000 ]
      - [ -0.49748686197288,  0.00046362113130 ]
    - # atom 4
      - [  0.01483593132213,  0.00000000000000 ]
      - [  0.00000000000013,  0.00000000000000 ]
      - [ -0.49750413594098,  0.00046363722936 ]
    - # atom 5
      - [  0.00286336217585,  0.00000000000000 ]
      - [  0.00000000000003,  0.00000000000000 ]
      - [ -0.09601921808946,  0.00008948284250 ]
  - # 3
    frequency:    0.1888868191
    eigenvector:
    - # atom 1
      - [  0.00000000000012,  0.00000000000000 ]
      - [  0.49772089485559,  0.00008866704299 ]
      - [  0.00000000000014, -0.00000000000000 ]
    - # atom 2
      - [  0.00000000000012,  0.00000000000000 ]
      - [  0.49783959837357,  0.00008868818956 ]
      - [  0.00000000000014, -0.00000000000000 ]
    - # atom 3
      - [  0.00000000000012,  0.00000000000000 ]
      - [  0.49783959837357,  0.00008868818956 ]
      - [  0.00000000000013, -0.00000000000000 ]
    - # atom 4
      - [  0.00000000000012, -0.00000000000000 ]
      - [  0.49741458252697,  0.00008861247464 ]
      - [  0.00000000000013, -0.00000000000000 ]
    - # atom 5
      - [  0.00000000000002,  0.00000000000000 ]
      - [  0.09572920536662,  0.00001705378588 ]
      - [  0.00000000000003, -0.00000000000000 ]
  - # 4
    frequency:    5.0635694061
    eigenvector:
    - # atom 1
      - [ -0.00000064361012,  0.00000000000000 ]
      - [  0.00000000000000, -0.00000000000000 ]
      - [ -0.00115985843530,  0.00000000002242 ]
    - # atom 2
      - [  0.00039230685384,  0.00000000000000 ]
      - [  0.00000000000773,  0.00000000000000 ]
      - [  0.00135135780594, -0.00000000002613 ]
    - # atom 3
      - [  0.00000074987390, -0.00000000000000 ]
      - [ -0.00000000000773, -0.00000000000000 ]
      - [  0.70698144183070, -0.00000001366775 ]
    - # atom 4
      - [ -0.00039244451023, -0.00000000000000 ]
      - [ -0.00000000000000,  0.00000000000000 ]
      - [ -0.70722951425370,  0.00000001367255 ]
    - # atom 5
      - [  0.00000023260844, -0.00000000000000 ]
      - [ -0.00000000000000,  0.00000000000000 ]
      - [  0.00041918678173, -0.00000000000810 ]
  - # 5
    frequency:    5.0635694061
    eigenvector:
    - # atom 1
      - [ -0.00115985843529,  0.00000000000000 ]
      - [  0.00000000000000, -0.00000000000000 ]
      - [  0.00000064361012, -0.00000000000001 ]
    - # atom 2
      - [  0.70698144183070,  0.00000000000000 ]
      - [  0.00000000000197, -0.00000000000000 ]
      - [ -0.00000074987390,  0.00000000000001 ]
    - # atom 3
      - [  0.00135135780594, -0.00000000000000 ]
      - [ -0.00000000000197,  0.00000000000000 ]
      - [ -0.00039230685384,  0.00000000000758 ]
    - # atom 4
      - [ -0.70722951425370, -0.00000000000000 ]
      - [ -0.00000000000000,  0.00000000000000 ]
      - [  0.00039244451023, -0.00000000000759 ]
    - # atom 5
      - [  0.00041918678173, -0.00000000000000 ]
      - [ -0.00000000000000, -0.00000000000000 ]
      - [ -0.00000023260844,  0.00000000000000 ]
  - # 6
    frequency:    5.0637745652
    eigenvector:
    - # atom 1
      - [  0.00000000000000,  0.00000000000000 ]
      - [  0.00000000000000, -0.00000000000000 ]
      - [  0.00000000000001, -0.00000000000000 ]
    - # atom 2
      - [ -0.00000000000198, -0.00000000000000 ]
      - [  0.70710678118655,  0.00000000000000 ]
      - [ -0.00000000000001,  0.00000000000000 ]
    - # atom 3
      - [ -0.00000000000000,  0.00000000000000 ]
      - [ -0.70710678118655, -0.00000000000000 ]
      - [ -0.00000000000773,  0.00000000000000 ]
    - # atom 4
      - [  0.00000000000198,  0.00000000000000 ]
      - [  0.00000000000000,  0.00000000000000 ]
      - [  0.00000000000773, -0.00000000000000 ]
    - # atom 5
      - [ -0.00000000000000,  0.00000000000000 ]
      - [  0.00000000000000,  0.00000000000000 ]
      - [ -0.00000000000000,  0.00000000000000 ]
  - # 7
    frequency:    5.6062893283
    eigenvector:
    - # atom 1
      - [ -0.08701287267433,  0.00000000000000 ]
      - [ -0.00000000000019, -0.00000000000000 ]
      - [  0.62322135626867, -0.00049814319158 ]
    - # atom 2
      - [ -0.01056959136590, -0.00000000000000 ]
      - [ -0.00000000000002, -0.00000000000000 ]
      - [ -0.72846154485823,  0.00058226207309 ]
    - # atom 3
      - [  0.10170628944810,  0.00000000000000 ]
      - [ -0.00000000000002, -0.00000000000000 ]
      - [  0.07570368456762, -0.00006051024193 ]
    - # atom 4
      - [ -0.01021020396715,  0.00000000000000 ]
      - [  0.00000000000022,  0.00000000000000 ]
      - [  0.07312960678820, -0.00005845277181 ]
    - # atom 5
      - [  0.03144934280111, -0.00000000000000 ]
      - [  0.00000000000007,  0.00000000000000 ]
      - [ -0.22525290191976,  0.00018004549803 ]
  - # 8
    frequency:    5.6062893283
    eigenvector:
    - # atom 1
      - [ -0.62322155535251,  0.00000000000000 ]
      - [ -0.00000000000018, -0.00000000000000 ]
      - [ -0.08701284487867,  0.00006954969662 ]
    - # atom 2
      - [ -0.07570370875065, -0.00000000000000 ]
      - [ -0.00000000000002, -0.00000000000000 ]
      - [  0.10170625695872, -0.00008129419657 ]
    - # atom 3
      - [  0.72846177756034,  0.00000000000000 ]
      - [ -0.00000000000002, -0.00000000000000 ]
      - [ -0.01056958798951,  0.00000844831173 ]
    - # atom 4
      - [ -0.07312963014896,  0.00000000000000 ]
      - [  0.00000000000021,  0.00000000000000 ]
      - [ -0.01021020070557,  0.00000816105211 ]
    - # atom 5
      - [  0.22525297387527,  0.00000000000000 ]
      - [  0.00000000000006,  0.00000000000000 ]
      - [  0.03144933275484, -0.00002513757084 ]
  - # 9
    frequency:    5.6086461040
    eigenvector:
    - # atom 1
      - [ -0.00000000000020,  0.00000000000000 ]
      - [  0.62954139510167,  0.00020613384924 ]
      - [  0.00000000000016, -0.00000000000000 ]
    - # atom 2
      - [ -0.00000000000002, -0.00000000000000 ]
      - [  0.07459680344254,  0.00002442559990 ]
      - [ -0.00000000000019,  0.00000000000000 ]
    - # atom 3
      - [  0.00000000000024,  0.00000000000000 ]
      - [  0.07459680344254,  0.00002442559990 ]
      - [  0.00000000000002, -0.00000000000000 ]
    - # atom 4
      - [ -0.00000000000002,  0.00000000000000 ]
      - [ -0.73560161141695, -0.00024086166986 ]
      - [  0.00000000000002, -0.00000000000000 ]
    - # atom 5
      - [  0.00000000000007,  0.00000000000000 ]
      - [ -0.22680041391699, -0.00007426238003 ]
      - [ -0.00000000000006,  0.00000000000000 ]
  - # 10
    frequency:    7.5565367407
    eigenvector:
    - # atom 1
      - [  0.05478773848970,  0.00000000000000 ]
      - [  0.00000000000048,  0.00000000000000 ]
      - [  0.56649170129186, -0.00025584586452 ]
    - # atom 2
      - [ -0.04387522669750, -0.00000000000000 ]
      - [ -0.00000000000039, -0.00000000000000 ]
      - [  0.25629151228753, -0.00011574948650 ]
    - # atom 3
      - [  0.02478700450566,  0.00000000000000 ]
      - [ -0.00000000000038, -0.00000000000000 ]
      - [ -0.45365902118970,  0.00020488699871 ]
    - # atom 4
      - [ -0.04387717529632,  0.00000000000000 ]
      - [  0.00000000000022,  0.00000000000000 ]
      - [ -0.45367916922078,  0.00020489609821 ]
    - # atom 5
      - [  0.04243351412455,  0.00000000000000 ]
      - [  0.00000000000037,  0.00000000000000 ]
      - [  0.43875206881783, -0.00019815453978 ]
  - # 11
    frequency:    7.5565367407
    eigenvector:
    - # atom 1
      - [  0.56649175906596,  0.00000000000000 ]
      - [ -0.00000000000008, -0.00000000000000 ]
      - [ -0.05478773290213,  0.00002474390156 ]
    - # atom 2
      - [ -0.45365906745648, -0.00000000000000 ]
      - [  0.00000000000006,  0.00000000000000 ]
      - [ -0.02478700197774,  0.00001119460697 ]
    - # atom 3
      - [  0.25629153842563,  0.00000000000000 ]
      - [  0.00000000000006,  0.00000000000000 ]
      - [  0.04387522222286, -0.00001981546091 ]
    - # atom 4
      - [ -0.45367921548961,  0.00000000000000 ]
      - [ -0.00000000000004, -0.00000000000000 ]
      - [  0.04387717082147, -0.00001981634096 ]
    - # atom 5
      - [  0.43875211356431, -0.00000000000000 ]
      - [ -0.00000000000006, -0.00000000000000 ]
      - [ -0.04243350979693,  0.00001916433722 ]
  - # 12
    frequency:    7.5586814157
    eigenvector:
    - # atom 1
      - [ -0.00000000000003,  0.00000000000000 ]
      - [ -0.56878829118560, -0.00056521344577 ]
      - [  0.00000000000049, -0.00000000000000 ]
    - # atom 2
      - [  0.00000000000003,  0.00000000000000 ]
      - [  0.45582053203544,  0.00045295569117 ]
      - [  0.00000000000022, -0.00000000000000 ]
    - # atom 3
      - [ -0.00000000000002, -0.00000000000000 ]
      - [  0.45582053203544,  0.00045295569117 ]
      - [ -0.00000000000039,  0.00000000000000 ]
    - # atom 4
      - [  0.00000000000003, -0.00000000000000 ]
      - [ -0.25848874025317, -0.00025686413352 ]
      - [ -0.00000000000039,  0.00000000000000 ]
    - # atom 5
      - [ -0.00000000000003, -0.00000000000000 ]
      - [ -0.44058795790836, -0.00043781885407 ]
      - [  0.00000000000038, -0.00000000000000 ]
  - # 13
    frequency:   12.3394948311
    eigenvector:
    - # atom 1
      - [  0.18025407049989,  0.00000000000000 ]
      - [ -0.00000000000000, -0.00000000000000 ]
      - [  0.00000000000000,  0.00000000000000 ]
    - # atom 2
      - [ -0.19720357974650, -0.00000000000000 ]
      - [  0.00000000000000,  0.00000000000000 ]
      - [ -0.00000000000000,  0.00000000000000 ]
    - # atom 3
      - [  0.38077017712043, -0.00000000000000 ]
      - [  0.00000000000000,  0.00000000000000 ]
      - [  0.00000000000000, -0.00000000000000 ]
    - # atom 4
      - [ -0.19721396225850, -0.00000000000000 ]
      - [ -0.00000000000000, -0.00000000000000 ]
      - [ -0.00000000000000, -0.00000000000000 ]
    - # atom 5
      - [ -0.86298316525258,  0.00000000000000 ]
      - [  0.00000000000000,  0.00000000000000 ]
      - [ -0.00000000000000, -0.00000000000000 ]
  - # 14
    frequency:   12.3394948311
    eigenvector:
    - # atom 1
      - [ -0.00000000000000,  0.00000000000000 ]
      - [ -0.00000000000002, -0.00000000000000 ]
      - [  0.18025330823654,  0.00052421518660 ]
    - # atom 2
      - [  0.00000000000000,  0.00000000000000 ]
      - [  0.00000000000002,  0.00000000000000 ]
      - [  0.38076856690908,  0.00110735646022 ]
    - # atom 3
      - [  0.00000000000000, -0.00000000000000 ]
      - [  0.00000000000002,  0.00000000000000 ]
      - [ -0.19720274580660, -0.00057350777748 ]
    - # atom 4
      - [ -0.00000000000000, -0.00000000000000 ]
      - [ -0.00000000000004, -0.00000000000000 ]
      - [ -0.19721312827470, -0.00057353797192 ]
    - # atom 5
      - [  0.00000000000000, -0.00000000000000 ]
      - [  0.00000000000009,  0.00000000000000 ]
      - [ -0.86297951584574, -0.00250972907157 ]
  - # 15
    frequency:   12.3432451158
    eigenvector:
    - # atom 1
      - [  0.00000000000000,  0.00000000000000 ]
      - [  0.18008623497012,  0.00002535345970 ]
      - [  0.00000000000002,  0.00000000000000 ]
    - # atom 2
      - [ -0.00000000000000, -0.00000000000000 ]
      - [ -0.19702405787584, -0.00002773805289 ]
      - [  0.00000000000004,  0.00000000000000 ]
    - # atom 3
      - [  0.00000000000000,  0.00000000000000 ]
      - [ -0.19702405787584, -0.00002773805289 ]
      - [ -0.00000000000002, -0.00000000000000 ]
    - # atom 4
      - [ -0.00000000000000,  0.00000000000000 ]
      - [  0.38033201130048,  0.00005354508257 ]
      - [ -0.00000000000002, -0.00000000000000 ]
    - # atom 5
      - [ -0.00000000000000,  0.00000000000000 ]
      - [ -0.86329573760690, -0.00012153918202 ]
      - [ -0.00000000000009, -0.00000000000000 ]

- q-position: [    0.0000000,    0.0200000,    0.0000000 ]
  distance:    0.0048748
  band:
  - # 1
    frequency:    0.1368903784
    eigenvector:
    - # atom 1
      - [ -0.49669021002833,  0.00000000000000 ]
      - [ -0.00000000000000,  0.00000000000000 ]
      - [ -0.02891020753783,  0.00001630347244 ]
    - # atom 2
      - [ -0.49683540739312, -0.00000000000000 ]
      - [ -0.00000000000000,  0.00000000000000 ]
      - [ -0.02892522413579,  0.00001631194082 ]
    - # atom 3
      - [ -0.49694820185298, -0.00000000000000 ]
      - [ -0.00000000000000,  0.00000000000000 ]
      - [ -0.02891865885389,  0.00001630823843 ]
    - # atom 4
      - [ -0.49690411928842,  0.00000000000000 ]
      - [ -0.00000000000000,  0.00000000000000 ]
      - [ -0.02892265827871,  0.00001631049385 ]
    - # atom 5
      - [ -0.09594648115496, -0.00000000000000 ]
      - [ -0.00000000000000,  0.00000000000000 ]
      - [ -0.00558463329196,  0.00000314936912 ]
  - # 2
    frequency:    0.1368903784
    eigenvector:
    - # atom 1
      - [  0.02891021213488,  0.00000000000000 ]
      - [ -0.00000000000001,  0.00000000000000 ]
      - [ -0.49669013104903,  0.00028010085546 ]
    - # atom 2
      - [  0.02891866345229,  0.00000000000000 ]
      - [ -0.00000000000001,  0.00000000000000 ]
      - [ -0.49694812283265,  0.00028024634601 ]
    - # atom 3
      - [  0.02892522873523, -0.00000000000000 ]
      - [ -0.00000000000001,  0.00000000000000 ]
      - [ -0.49683532839073,  0.00028018273729 ]
    - # atom 4
      - [  0.02892266287774,  0.00000000000000 ]
      - [ -0.00000000000001,  0.00000000000000 ]
      - [ -0.49690404027510,  0.00028022148632 ]
    - # atom 5
      - [  0.00558463417998, -0.00000000000000 ]
      - [ -0.00000000000000,  0.00000000000000 ]
      - [ -0.09594646589839,  0.00005410755217 ]
  - # 3
    frequency:    0.3774281520
    eigenvector:
    - # atom 1
      - [  0.00000000000000,  0.00000000000000 ]
      - [ -0.49796651462368,  0.00219326547862 ]
      - [  0.00000000000001,  0.00000000000000 ]
    - # atom 2
      - [  0.00000000000000, -0.00000000000000 ]
      - [ -0.49819382483265,  0.00219426665364 ]
      - [  0.00000000000001,  0.00000000000000 ]
    - # atom 3
      - [  0.00000000000000,  0.00000000000000 ]
      - [ -0.49819382483265,  0.00219426665364 ]
      - [  0.00000000000001,  0.00000000000000 ]
    - # atom 4
      - [  0.00000000000000,  0.00000000000000 ]
      - [ -0.49662007838012,  0.00218733517599 ]